version 2
run General-0-20120130-13:04:01-24745
attr configname General
attr datetime 20120130-13:04:01
attr experiment General
attr inifile ddos.ini
attr iterationvars ""
attr iterationvars2 $repetition=0
attr measurement ""
attr network Ddos
attr processid 24745
attr repetition 0
attr replication #0
attr resultdir results
attr runnumber 0
attr seedset 0

vector 30  Ddos.r2.eth[0].mac  framesSent  ETV
vector 32  Ddos.r2.eth[0].mac  bytesSent  ETV
vector 44  Ddos.r2.eth[1].mac  framesSent  ETV
vector 46  Ddos.r2.eth[1].mac  bytesSent  ETV
vector 17  Ddos.r1.eth[1].mac  framesReceivedOK  ETV
vector 19  Ddos.r1.eth[1].mac  bytesReceivedOK  ETV
vector 23  Ddos.r1.eth[1].mac  framesPassedToHL  ETV
vector 61  Ddos.server.eth[0].mac  framesReceivedOK  ETV
vector 63  Ddos.server.eth[0].mac  bytesReceivedOK  ETV
vector 67  Ddos.server.eth[0].mac  framesPassedToHL  ETV
vector 2  Ddos.r1.eth[0].mac  framesSent  ETV
vector 4  Ddos.r1.eth[0].mac  bytesSent  ETV
vector 16  Ddos.r1.eth[1].mac  framesSent  ETV
vector 18  Ddos.r1.eth[1].mac  bytesSent  ETV
vector 77  Ddos.clients[0].eth[0].mac  framesReceivedOK  ETV
vector 79  Ddos.clients[0].eth[0].mac  bytesReceivedOK  ETV
vector 83  Ddos.clients[0].eth[0].mac  framesPassedToHL  ETV
vector 31  Ddos.r2.eth[0].mac  framesReceivedOK  ETV
vector 33  Ddos.r2.eth[0].mac  bytesReceivedOK  ETV
vector 37  Ddos.r2.eth[0].mac  framesPassedToHL  ETV
vector 60  Ddos.server.eth[0].mac  framesSent  ETV
vector 62  Ddos.server.eth[0].mac  bytesSent  ETV
vector 45  Ddos.r2.eth[1].mac  framesReceivedOK  ETV
vector 47  Ddos.r2.eth[1].mac  bytesReceivedOK  ETV
vector 51  Ddos.r2.eth[1].mac  framesPassedToHL  ETV
vector 76  Ddos.clients[0].eth[0].mac  framesSent  ETV
vector 78  Ddos.clients[0].eth[0].mac  bytesSent  ETV
vector 3  Ddos.r1.eth[0].mac  framesReceivedOK  ETV
vector 5  Ddos.r1.eth[0].mac  bytesReceivedOK  ETV
vector 9  Ddos.r1.eth[0].mac  framesPassedToHL  ETV
vector 125  Ddos.clients[0].tcp  tcpRcvQueueBytes  ETV
vector 113  Ddos.clients[0].tcp  "advertised window"  ETV
vector 112  Ddos.clients[0].tcp  "receive window"  ETV
vector 115  Ddos.clients[0].tcp  "sent ack"  ETV
vector 93  Ddos.server.tcp  "rcvd seq"  ETV
vector 94  Ddos.server.tcp  "rcvd ack"  ETV
vector 90  Ddos.server.tcp  "advertised window"  ETV
vector 88  Ddos.server.tcp  "send window"  ETV
vector 102  Ddos.server.tcp  tcpRcvQueueBytes  ETV
vector 89  Ddos.server.tcp  "receive window"  ETV
vector 92  Ddos.server.tcp  "sent ack"  ETV
vector 116  Ddos.clients[0].tcp  "rcvd seq"  ETV
vector 117  Ddos.clients[0].tcp  "rcvd ack"  ETV
vector 111  Ddos.clients[0].tcp  "send window"  ETV
vector 95  Ddos.server.tcp  "unacked bytes"  ETV
vector 114  Ddos.clients[0].tcp  "sent seq"  ETV
vector 118  Ddos.clients[0].tcp  "unacked bytes"  ETV
vector 96  Ddos.server.tcp  "rcvd dupAcks"  ETV
vector 91  Ddos.server.tcp  "sent seq"  ETV
vector 58  Ddos.server.eth[0].queue  "queue length"  ETV
vector 129  Ddos.clients[0].tcp  "measured RTT"  ETV
vector 130  Ddos.clients[0].tcp  "smoothed RTT"  ETV
vector 131  Ddos.clients[0].tcp  RTTVAR  ETV
vector 132  Ddos.clients[0].tcp  RTO  ETV
vector 127  Ddos.clients[0].tcp  cwnd  ETV
vector 119  Ddos.clients[0].tcp  "rcvd dupAcks"  ETV
vector 74  Ddos.clients[0].eth[0].queue  "queue length"  ETV
vector 14  Ddos.r1.eth[1].queue  "queue length"  ETV
vector 42  Ddos.r2.eth[1].queue  "queue length"  ETV
vector 106  Ddos.server.tcp  "measured RTT"  ETV
vector 107  Ddos.server.tcp  "smoothed RTT"  ETV
vector 108  Ddos.server.tcp  RTTVAR  ETV
vector 109  Ddos.server.tcp  RTO  ETV
vector 104  Ddos.server.tcp  cwnd  ETV
vector 28  Ddos.r2.eth[0].queue  "queue length"  ETV
vector 0  Ddos.r1.eth[0].queue  "queue length"  ETV
vector 75  Ddos.clients[0].eth[0].queue  drops  ETV
vector 100  Ddos.server.tcp  "rcvd oooseg"  ETV
vector 128  Ddos.clients[0].tcp  ssthresh  ETV
vector 133  Ddos.clients[0].tcp  numRTOs  ETV
vector 59  Ddos.server.eth[0].queue  drops  ETV
vector 123  Ddos.clients[0].tcp  "rcvd oooseg"  ETV
vector 105  Ddos.server.tcp  ssthresh  ETV
104	524	5.0038649	1072
104	896	5.0066367	1608
104	919	5.0067151	2144
104	1608	5.0111231	2680
104	1633	5.0112015	3216
104	1655	5.0112799	3752
104	1689	5.0113583	4288
104	2670	5.0170159	4824
104	2713	5.0170943	5360
104	2735	5.0171727	5896
104	2753	5.0172511	6432
104	2762	5.0173295	6968
104	2771	5.0174079	7504
104	2780	5.0174863	8040
104	2816	5.0175647	8576
104	3851	5.0244725	9112
104	4088	6.572602906784	9648
104	4357	6.574945906784	10184
104	4364	6.575024306784	10720
104	4421	6.575453106784	11256
104	4478	6.575960306784	11792
104	4535	6.576467506784	12328
104	4592	6.576974706784	12864
104	4649	6.577481906784	13400
104	4715	6.577989106784	13936
104	4790	6.578496306784	14472
104	4867	6.579003506784	15008
104	6640	6.591026106784	5360
104	6666	6.591104506784	5896
104	6682	6.591182906784	6432
104	6696	6.591261906784	6968
104	6790	6.594069906784	3752
104	14867	11.594543306784	3828
104	14977	11.596300706784	3903
104	15036	11.596807906784	3976
104	15095	11.597315106784	4048
104	15154	11.597822306784	4118
104	15213	11.598329506784	4187
104	15272	11.598836706784	4255
104	15331	11.599343906784	4322
104	15392	11.599851106784	4388
104	15451	11.600358306784	4453
104	15510	11.600865506784	4517
104	15569	11.601372706784	4580
104	15628	11.601879906784	4642
104	15687	11.602387106784	4703
104	15746	11.602894306784	4764
104	15805	11.603401506784	4824
104	15866	11.603908706784	4883
104	15925	11.604415906784	4941
104	15984	11.604923106784	4999
104	16043	11.605430306784	5056
104	16102	11.605937506784	5112
104	16161	11.606444706784	5168
104	16220	11.606951906784	5223
104	16279	11.607459106784	5278
104	16338	11.607966306784	5332
104	16397	11.608473506784	5385
104	16458	11.608980706784	5438
104	16517	11.609487906784	5490
104	16576	11.609995106784	5542
104	16635	11.610502306784	5593
104	16694	11.611009506784	5644
104	16753	11.611516706784	5694
104	16812	11.612023906784	5744
104	16871	11.612531106784	5794
104	16930	11.613038306784	5843
104	16989	11.613545506784	5892
104	17048	11.614052706784	5940
104	17109	11.614559906784	5988
104	17168	11.615067106784	6035
104	17227	11.615574306784	6082
104	17286	11.616081506784	6129
104	17345	11.616588706784	6175
104	17404	11.617095906784	6221
104	17463	11.617603106784	6267
104	17522	11.618110306784	6312
104	17581	11.618617506784	6357
104	17640	11.619124706784	6402
104	17699	11.619631906784	6446
104	17760	11.620139106784	6490
104	17819	11.620646306784	6534
104	17878	11.621153506784	6577
104	17937	11.621660706784	6620
104	17996	11.622167906784	6663
104	18055	11.622675106784	6706
104	18114	11.623182306784	6748
104	18173	11.623689506784	6790
104	18232	11.624196706784	6832
104	18291	11.624703906784	6874
104	18350	11.625211106784	6915
104	18409	11.625718306784	6956
104	18468	11.626225506784	6997
104	18529	11.626732706784	7038
104	18588	11.627239906784	7078
104	18647	11.627747106784	7118
104	18706	11.628254306784	7158
104	18765	11.628761506784	7198
104	18824	11.629268706784	7237
104	18883	11.629775906784	7276
104	18942	11.630283106784	7315
104	19001	11.630790306784	7354
104	19060	11.631297506784	7393
104	19119	11.631804706784	7431
104	19178	11.632311906784	7469
104	19237	11.632819106784	7507
104	19298	11.633326306784	7545
104	19357	11.633833506784	7583
104	19416	11.634340706784	7620
104	19475	11.634847906784	7657
104	19534	11.635355106784	7694
104	19593	11.635862306784	7731
104	19652	11.636369506784	7768
104	19711	11.636876706784	7804
104	19770	11.637383906784	7840
104	19829	11.637891106784	7876
104	19888	11.638398306784	7912
104	19947	11.638905506784	7948
104	20006	11.639412706784	7984
104	20176	11.640934306784	5360
104	20234	11.641441506784	5896
104	20290	11.641948706784	6432
104	20346	11.642455906784	6968
104	20402	11.642963106784	7504
104	20458	11.643470306784	8040
104	20514	11.643977506784	8576
104	20570	11.644484706784	9112
104	20626	11.644991906784	9648
104	20678	11.645499106784	10184
104	20721	11.646006306784	10720
104	20756	11.646513506784	3752
104	20866	11.648270906784	3828
104	20925	11.648778106784	3903
104	20984	11.649285306784	3976
104	21043	11.649792506784	4048
104	21102	11.650299706784	4118
104	21161	11.650806906784	4187
104	21220	11.651314106784	4255
104	21279	11.651821306784	4322
104	21340	11.652328506784	4388
104	21399	11.652835706784	4453
104	21458	11.653342906784	4517
104	21517	11.653850106784	4580
104	21576	11.654357306784	4642
104	21635	11.654864506784	4703
104	21694	11.655371706784	4764
104	21753	11.655878906784	4824
104	21814	11.656386106784	4883
104	21873	11.656893306784	4941
104	21932	11.657400506784	4999
104	21991	11.657907706784	5056
104	22050	11.658414906784	5112
104	22109	11.658922106784	5168
104	22168	11.659429306784	5223
104	22227	11.659936506784	5278
104	22286	11.660443706784	5332
104	22345	11.660950906784	5385
104	22406	11.661458106784	5438
104	22465	11.661965306784	5490
104	22524	11.662472506784	5542
104	22583	11.662979706784	5593
104	22640	11.663486906784	5644
104	22697	11.663994106784	5694
104	22754	11.664501306784	5744
104	22811	11.665008506784	5794
104	22868	11.665515706784	5843
104	22925	11.666022906784	5892
104	22978	11.666530106784	5940
104	23022	11.667037306784	5988
104	23059	11.667358106784	6035
105	6640	6.591026106784	3752
105	20176	11.640934306784	3752
106	524	5.0038649	0.002343
106	896	5.0066367	0.0027718
106	1608	5.0111231	0.0044864
106	2670	5.0170159	0.0058928
106	3851	5.0244725	0.0074566
106	4088	6.572602906784	1.548130406784
106	4357	6.574945906784	0.002343
106	6790	6.594069906784	0.0137016
106	14867	11.594543306784	0.0004734
106	14977	11.596300706784	0.0017574
106	15392	11.599851106784	0.0035504
106	15866	11.603908706784	0.0040576
106	16397	11.608473506784	0.0045648
106	16930	11.613038306784	0.0045648
106	17522	11.618110306784	0.005072
106	18173	11.623689506784	0.0055792
106	18883	11.629775906784	0.0060864
106	19652	11.636369506784	0.0065936
106	20756	11.646513506784	0.010144
106	20866	11.648270906784	0.0017574
106	21279	11.651821306784	0.0035504
106	21694	11.655371706784	0.0035504
106	22168	11.659429306784	0.0040576
106	22697	11.663994106784	0.0045648
107	524	5.0038649	0.000292875
107	896	5.0066367	0.000602740625
107	1608	5.0111231	0.001088198046
107	2670	5.0170159	0.00168877329
107	3851	5.0244725	0.002409751628
107	4088	6.572602906784	0.195624833522
107	4357	6.574945906784	0.171464604332
107	6790	6.594069906784	0.151744228791
107	14867	11.594543306784	0.132835375193
107	14977	11.596300706784	0.116450628294
107	15392	11.599851106784	0.102338099758
107	15866	11.603908706784	0.090053037289
107	16397	11.608473506784	0.079367007628
107	16930	11.613038306784	0.070016731675
107	17522	11.618110306784	0.061898640216
107	18173	11.623689506784	0.054858710189
107	18883	11.629775906784	0.048762171416
107	19652	11.636369506784	0.043491099989
107	20756	11.646513506784	0.039322712491
107	20866	11.648270906784	0.03462704843
107	21279	11.651821306784	0.030742467377
107	21694	11.655371706784	0.027343458955
107	22168	11.659429306784	0.024432726586
107	22697	11.663994106784	0.021949235763
108	524	5.0038649	0.656542875
108	896	5.0066367	0.57478488125
108	1608	5.0111231	0.503422228516
108	2670	5.0170159	0.441095025196
108	3851	5.0244725	0.386679125386
108	4088	6.572602906784	0.531559316607
108	4357	6.574945906784	0.489274631222
108	6790	6.594069906784	0.447835677861
108	14867	11.594543306784	0.410765071728
108	14977	11.596300706784	0.375804184662
108	15392	11.599851106784	0.342941190116
108	15866	11.603908706784	0.312358603822
108	16397	11.608473506784	0.283999808006
108	16930	11.613038306784	0.257850107959
108	17522	11.618110306784	0.233736935924
108	18173	11.623689506784	0.211559748961
108	18883	11.629775906784	0.191211319115
108	19652	11.636369506784	0.172580975653
108	20756	11.646513506784	0.155176741195
108	20866	11.648270906784	0.140475312607
108	21279	11.651821306784	0.126800479585
108	21694	11.655371706784	0.114349428059
108	22168	11.659429306784	0.102966481921
108	22697	11.663994106784	0.092579162505
109	524	5.0038649	2.626464375
109	896	5.0066367	2.299742265625
109	1608	5.0111231	2.01477711211
109	2670	5.0170159	1.766068874074
109	3851	5.0244725	1.549126253172
109	4088	6.572602906784	2.32186209995
109	4357	6.574945906784	2.12856312922
109	6790	6.594069906784	1.943086940235
109	14867	11.594543306784	1.775895662105
109	14977	11.596300706784	1.619667366942
109	15392	11.599851106784	1.474102860222
109	15866	11.603908706784	1.339487452577
109	16397	11.608473506784	1.215366239652
109	16930	11.613038306784	1.101417163511
109	17522	11.618110306784	1
109	18173	11.623689506784	1
109	18883	11.629775906784	1
109	19652	11.636369506784	1
109	20756	11.646513506784	1
109	20866	11.648270906784	1
109	21279	11.651821306784	1
109	21694	11.655371706784	1
109	22168	11.659429306784	1
109	22697	11.663994106784	1
88	212	3.0005143	7504
88	295	3.0011295	7504
88	524	5.0038649	7504
88	896	5.0066367	7504
88	919	5.0067151	7504
88	1608	5.0111231	7504
88	1633	5.0112015	7504
88	1655	5.0112799	7504
88	1689	5.0113583	7504
88	2670	5.0170159	7504
88	2713	5.0170943	7504
88	2735	5.0171727	7504
88	2753	5.0172511	7504
88	2762	5.0173295	7504
88	2771	5.0174079	7504
88	2780	5.0174863	7504
88	2816	5.0175647	7504
88	4357	6.574945906784	7504
88	4364	6.575024306784	7504
88	4421	6.575453106784	7504
88	4478	6.575960306784	7504
88	4535	6.576467506784	7504
88	4592	6.576974706784	7504
88	4649	6.577481906784	7504
88	4715	6.577989106784	7504
88	4790	6.578496306784	7504
88	4867	6.579003506784	7504
88	4995	6.580446706784	7504
88	5072	6.581032306784	7504
88	5290	6.582711306784	7504
88	5397	6.583647306784	7504
88	5501	6.584232906784	7504
88	5746	6.585911906784	7504
88	5841	6.586497506784	7504
88	5959	6.587083106784	7504
88	6070	6.587668706784	7504
88	6209	6.588605306784	7504
88	6392	6.589698106784	7504
88	6502	6.590283706784	7504
88	6605	6.590869306784	7504
88	6622	6.590947706784	7504
88	6640	6.591026106784	7504
88	6666	6.591104506784	7504
88	6682	6.591182906784	7504
88	6696	6.591261906784	7504
88	6790	6.594069906784	0
88	14867	11.594543306784	7504
88	14977	11.596300706784	7504
88	15036	11.596807906784	7504
88	15095	11.597315106784	7504
88	15154	11.597822306784	7504
88	15213	11.598329506784	7504
88	15272	11.598836706784	7504
88	15331	11.599343906784	7504
88	15392	11.599851106784	7504
88	15451	11.600358306784	7504
88	15510	11.600865506784	7504
88	15569	11.601372706784	7504
88	15628	11.601879906784	7504
88	15687	11.602387106784	7504
88	15746	11.602894306784	7504
88	15805	11.603401506784	7504
88	15866	11.603908706784	7504
88	15925	11.604415906784	7504
88	15984	11.604923106784	7504
88	16043	11.605430306784	7504
88	16102	11.605937506784	7504
88	16161	11.606444706784	7504
88	16220	11.606951906784	7504
88	16279	11.607459106784	7504
88	16338	11.607966306784	7504
88	16397	11.608473506784	7504
88	16458	11.608980706784	7504
88	16517	11.609487906784	7504
88	16576	11.609995106784	7504
88	16635	11.610502306784	7504
88	16694	11.611009506784	7504
88	16753	11.611516706784	7504
88	16812	11.612023906784	7504
88	16871	11.612531106784	7504
88	16930	11.613038306784	7504
88	16989	11.613545506784	7504
88	17048	11.614052706784	7504
88	17109	11.614559906784	7504
88	17168	11.615067106784	7504
88	17227	11.615574306784	7504
88	17286	11.616081506784	7504
88	17345	11.616588706784	7504
88	17404	11.617095906784	7504
88	17463	11.617603106784	7504
88	17522	11.618110306784	7504
88	17581	11.618617506784	7504
88	17640	11.619124706784	7504
88	17699	11.619631906784	7504
88	17760	11.620139106784	7504
88	17819	11.620646306784	7504
88	17878	11.621153506784	7504
88	17937	11.621660706784	7504
88	17996	11.622167906784	7504
88	18055	11.622675106784	7504
88	18114	11.623182306784	7504
88	18173	11.623689506784	7504
88	18232	11.624196706784	7504
88	18291	11.624703906784	7504
88	18350	11.625211106784	7504
88	18409	11.625718306784	7504
88	18468	11.626225506784	7504
88	18529	11.626732706784	7504
88	18588	11.627239906784	7504
88	18647	11.627747106784	7504
88	18706	11.628254306784	7504
88	18765	11.628761506784	7504
88	18824	11.629268706784	7504
88	18883	11.629775906784	7504
88	18942	11.630283106784	7504
88	19001	11.630790306784	7504
88	19060	11.631297506784	7504
88	19119	11.631804706784	7504
88	19178	11.632311906784	7504
88	19237	11.632819106784	7504
88	19298	11.633326306784	7504
88	19357	11.633833506784	7504
88	19416	11.634340706784	7504
88	19475	11.634847906784	7504
88	19534	11.635355106784	7504
88	19593	11.635862306784	7504
88	19652	11.636369506784	7504
88	19711	11.636876706784	7504
88	19770	11.637383906784	7504
88	19829	11.637891106784	7504
88	19888	11.638398306784	7504
88	19947	11.638905506784	7504
88	20006	11.639412706784	7504
88	20064	11.639919906784	7504
88	20120	11.640427106784	7504
88	20176	11.640934306784	7504
88	20234	11.641441506784	7504
88	20290	11.641948706784	7504
88	20346	11.642455906784	7504
88	20402	11.642963106784	7504
88	20458	11.643470306784	7504
88	20514	11.643977506784	7504
88	20570	11.644484706784	7504
88	20626	11.644991906784	7504
88	20678	11.645499106784	7504
88	20721	11.646006306784	7504
88	20756	11.646513506784	7504
88	20866	11.648270906784	7504
88	20925	11.648778106784	7504
88	20984	11.649285306784	7504
88	21043	11.649792506784	7504
88	21102	11.650299706784	7504
88	21161	11.650806906784	7504
88	21220	11.651314106784	7504
88	21279	11.651821306784	7504
88	21340	11.652328506784	7504
88	21399	11.652835706784	7504
88	21458	11.653342906784	7504
88	21517	11.653850106784	7504
88	21576	11.654357306784	7504
88	21635	11.654864506784	7504
88	21694	11.655371706784	7504
88	21753	11.655878906784	7504
88	21814	11.656386106784	7504
88	21873	11.656893306784	7504
88	21932	11.657400506784	7504
88	21991	11.657907706784	7504
88	22050	11.658414906784	7504
88	22109	11.658922106784	7504
88	22168	11.659429306784	7504
88	22227	11.659936506784	7504
88	22286	11.660443706784	7504
88	22345	11.660950906784	7504
88	22406	11.661458106784	7504
88	22465	11.661965306784	7504
88	22524	11.662472506784	7504
88	22583	11.662979706784	7504
88	22640	11.663486906784	7504
88	22697	11.663994106784	7504
88	22754	11.664501306784	7504
88	22811	11.665008506784	7504
88	22868	11.665515706784	7504
88	22925	11.666022906784	7504
88	22978	11.666530106784	7504
88	23022	11.667037306784	7504
88	23059	11.667358106784	7504
89	212	3.0005143	7504
89	328	5.0015219	7504
89	331	5.0015219	7504
89	453	5.0032793	7504
89	508	5.0037865	7504
89	524	5.0038649	7504
89	524	5.0038649	7504
89	645	5.0050367	7504
89	711	5.0055439	7504
89	805	5.0060511	7504
89	878	5.0065583	7504
89	896	5.0066367	7504
89	896	5.0066367	7504
89	919	5.0067151	7504
89	919	5.0067151	7504
89	997	5.0074943	7504
89	1050	5.0080015	7504
89	1111	5.0085087	7504
89	1195	5.0090159	7504
89	1288	5.0095231	7504
89	1401	5.0100303	7504
89	1501	5.0105375	7504
89	1590	5.0110447	7504
89	1608	5.0111231	7504
89	1608	5.0111231	7504
89	1633	5.0112015	7504
89	1633	5.0112015	7504
89	1655	5.0112799	7504
89	1655	5.0112799	7504
89	1689	5.0113583	7504
89	1689	5.0113583	7504
89	1733	5.0118655	7504
89	1786	5.0123727	7504
89	1847	5.0128799	7504
89	1908	5.0133871	7504
89	1969	5.0138943	7504
89	2030	5.0144015	7504
89	2091	5.0149087	7504
89	2171	5.0154159	7504
89	2286	5.0159231	7504
89	2464	5.0164303	7504
89	2640	5.0169375	7504
89	2670	5.0170159	7504
89	2670	5.0170159	7504
89	2713	5.0170943	7504
89	2713	5.0170943	7504
89	2735	5.0171727	7504
89	2735	5.0171727	7504
89	2865	5.0180719	7504
89	2924	5.0185791	7504
89	2983	5.0190863	7504
89	3042	5.0195935	7504
89	3101	5.0201007	7504
89	3221	5.0206079	7504
89	3355	5.0211151	6968
89	3358	5.0211151	6968
89	3395	5.0211935	6968
89	3430	5.0212719	6968
89	3461	5.0213503	6968
89	3481	5.0214287	6968
89	3501	5.0215071	6968
89	3519	5.0215855	6968
89	3709	5.0228309	6968
89	3758	5.0229509	6968
89	3851	5.0244725	5896
89	3854	5.0244725	5896
89	3854	5.0244725	5896
89	3965	5.0263083	5896
89	4029	5.0268155	5896
89	4088	6.572602906784	7504
89	4091	6.572602906784	7504
89	4091	6.572602906784	7504
89	4091	6.572602906784	7504
89	4091	6.572602906784	7504
89	4091	6.572602906784	7504
89	4091	6.572602906784	7504
89	4091	6.572602906784	7504
89	4091	6.572602906784	7504
89	4091	6.572602906784	7504
89	4091	6.572602906784	7504
89	4091	6.572602906784	7504
89	4272	6.574360306784	7504
89	4275	6.574360306784	7504
89	4342	6.574867506784	7504
89	4345	6.574867506784	7504
89	4966	6.580368306784	7504
89	4969	6.580368306784	7504
89	5044	6.580953906784	7504
89	5047	6.580953906784	7504
89	5190	6.582125706784	7504
89	5193	6.582125706784	7504
89	5272	6.582632906784	7504
89	5275	6.582632906784	7504
89	5370	6.583568906784	7504
89	5373	6.583568906784	7504
89	5473	6.584154506784	7504
89	5476	6.584154506784	7504
89	5637	6.585326306784	7504
89	5640	6.585326306784	7504
89	5721	6.585833506784	7504
89	5724	6.585833506784	7504
89	5803	6.586419106784	7504
89	5806	6.586419106784	7504
89	5905	6.587004706784	7504
89	5908	6.587004706784	7504
89	6023	6.587590306784	7504
89	6026	6.587590306784	7504
89	6177	6.588526906784	7504
89	6278	6.589112506784	7504
89	6367	6.589619706784	7504
89	6477	6.590205306784	7504
89	6587	6.590790906784	7504
89	6640	6.591026106784	7504
89	6790	6.594069906784	7504
89	6850	6.594577106784	7504
89	6912	6.595084306784	7504
89	6972	6.595591506784	7504
89	7032	6.596098706784	7504
89	7092	6.596605906784	7504
89	7152	6.597113106784	7504
89	7212	6.597620306784	7504
89	7274	6.598127506784	7504
89	7334	6.598634706784	7504
89	7394	6.599141906784	7504
89	7454	6.599649106784	7504
89	7514	6.600156306784	7504
89	7574	6.600663506784	7504
89	7634	6.601170706784	7504
89	7694	6.601677906784	7504
89	7756	6.602185106784	7504
89	7816	6.602692306784	7504
89	7876	6.603199506784	7504
89	7936	6.603706706784	7504
89	7996	6.604213906784	7504
89	8056	6.604721106784	7504
89	8116	6.605228306784	7504
89	8176	6.605735506784	7504
89	8238	6.606242706784	7504
89	8298	6.606749906784	7504
89	8358	6.607257106784	7504
89	8418	6.607764306784	7504
89	8478	6.608271506784	7504
89	8538	6.608778706784	7504
89	8598	6.609285906784	7504
89	8658	6.609793106784	7504
89	8718	6.610300306784	7504
89	8778	6.610807506784	7504
89	8840	6.611314706784	7504
89	8900	6.611821906784	7504
89	8960	6.612329106784	7504
89	9020	6.612836306784	7504
89	9080	6.613343506784	7504
89	9140	6.613850706784	7504
89	9200	6.614357906784	7504
89	9260	6.614865106784	7504
89	9320	6.615372306784	7504
89	9380	6.615879506784	7504
89	9440	6.616386706784	7504
89	9502	6.616893906784	7504
89	9562	6.617401106784	7504
89	9622	6.617908306784	7504
89	9682	6.618415506784	7504
89	9742	6.618922706784	7504
89	9802	6.619429906784	7504
89	9862	6.619937106784	7504
89	9922	6.620444306784	7504
89	9982	6.620951506784	7504
89	10042	6.621458706784	7504
89	10102	6.621965906784	7504
89	10164	6.622473106784	7504
89	10224	6.622980306784	7504
89	10284	6.623487506784	7504
89	10344	6.623994706784	7504
89	10404	6.624501906784	7504
89	10464	6.625009106784	7504
89	10524	6.625516306784	7504
89	10584	6.626023506784	7504
89	10644	6.626530706784	7504
89	10704	6.627037906784	7504
89	10764	6.627545106784	7504
89	10824	6.628052306784	7504
89	10884	6.628559506784	7504
89	10946	6.629066706784	7504
89	11006	6.629573906784	7504
89	11066	6.630081106784	7504
89	11126	6.630588306784	7504
89	11186	6.631095506784	7504
89	11246	6.631602706784	7504
89	11306	6.632109906784	7504
89	11366	6.632617106784	7504
89	11426	6.633124306784	7504
89	11486	6.633631506784	7504
89	11546	6.634138706784	7504
89	11606	6.634645906784	7504
89	11666	6.635153106784	7504
89	11728	6.635660306784	7504
89	11788	6.636167506784	7504
89	11848	6.636674706784	7504
89	11908	6.637181906784	7504
89	11968	6.637689106784	7504
89	12028	6.638196306784	7504
89	12088	6.638703506784	7504
89	12148	6.639210706784	7504
89	12208	6.639717906784	7504
89	12268	6.640225106784	7504
89	12328	6.640732306784	7504
89	12388	6.641239506784	7504
89	12448	6.641746706784	7504
89	12508	6.642253906784	7504
89	12564	6.642761106784	7504
89	12620	6.643268306784	7504
89	12678	6.643775506784	7504
89	12734	6.644282706784	7504
89	12790	6.644789906784	7504
89	12846	6.645297106784	7504
89	12902	6.645804306784	7504
89	12958	6.646311506784	7504
89	13014	6.646818706784	7504
89	13070	6.647325906784	7504
89	13124	6.647833106784	7504
89	13169	6.648340306784	7504
89	13205	6.648847506784	7504
89	13310	6.650604906784	7504
89	13370	6.651112106784	7504
89	13430	6.651619306784	7504
89	13490	6.652126506784	7504
89	13550	6.652633706784	7504
89	13610	6.653140906784	7504
89	13670	6.653648106784	7504
89	13730	6.654155306784	7504
89	13792	6.654662506784	7504
89	13852	6.655169706784	7504
89	13912	6.655676906784	7504
89	13972	6.656184106784	7504
89	14032	6.656691306784	7504
89	14092	6.657198506784	7504
89	14152	6.657705706784	7504
89	14212	6.658212906784	7504
89	14274	6.658720106784	7504
89	14332	6.659227306784	7504
89	14390	6.659734506784	7504
89	14448	6.660241706784	7504
89	14506	6.660748906784	7504
89	14564	6.661256106784	7504
89	14620	6.661763306784	7504
89	14667	6.662270506784	7504
89	14705	6.662592106784	7504
89	14808	11.594069906784	7504
89	14867	11.594543306784	7504
89	14867	11.594543306784	7504
89	14867	11.594543306784	7504
89	14867	11.594543306784	7504
89	14867	11.594543306784	7504
89	14867	11.594543306784	7504
89	14867	11.594543306784	7504
89	14977	11.596300706784	7504
89	15036	11.596807906784	7504
89	15095	11.597315106784	7504
89	15154	11.597822306784	7504
89	15213	11.598329506784	7504
89	15272	11.598836706784	7504
89	15331	11.599343906784	7504
89	15331	11.599343906784	7504
89	15392	11.599851106784	7504
89	15451	11.600358306784	7504
89	15510	11.600865506784	7504
89	15569	11.601372706784	7504
89	15628	11.601879906784	7504
89	15687	11.602387106784	7504
89	15746	11.602894306784	7504
89	15805	11.603401506784	7504
89	15805	11.603401506784	7504
89	15866	11.603908706784	7504
89	15925	11.604415906784	7504
89	15984	11.604923106784	7504
89	16043	11.605430306784	7504
89	16102	11.605937506784	7504
89	16161	11.606444706784	7504
89	16220	11.606951906784	7504
89	16279	11.607459106784	7504
89	16338	11.607966306784	7504
89	16397	11.608473506784	7504
89	16397	11.608473506784	7504
89	16458	11.608980706784	7504
89	16517	11.609487906784	7504
89	16576	11.609995106784	7504
89	16635	11.610502306784	7504
89	16694	11.611009506784	7504
89	16753	11.611516706784	7504
89	16812	11.612023906784	7504
89	16871	11.612531106784	7504
89	16930	11.613038306784	7504
89	16989	11.613545506784	7504
89	17048	11.614052706784	7504
89	17048	11.614052706784	7504
89	17109	11.614559906784	7504
89	17168	11.615067106784	7504
89	17227	11.615574306784	7504
89	17286	11.616081506784	7504
89	17345	11.616588706784	7504
89	17404	11.617095906784	7504
89	17463	11.617603106784	7504
89	17522	11.618110306784	7504
89	17581	11.618617506784	7504
89	17640	11.619124706784	7504
89	17699	11.619631906784	7504
89	17699	11.619631906784	7504
89	17760	11.620139106784	7504
89	17819	11.620646306784	7504
89	17878	11.621153506784	7504
89	17937	11.621660706784	7504
89	17996	11.622167906784	7504
89	18055	11.622675106784	7504
89	18114	11.623182306784	7504
89	18173	11.623689506784	7504
89	18232	11.624196706784	7504
89	18291	11.624703906784	7504
89	18350	11.625211106784	7504
89	18409	11.625718306784	7504
89	18468	11.626225506784	7504
89	18468	11.626225506784	7504
89	18529	11.626732706784	7504
89	18588	11.627239906784	7504
89	18647	11.627747106784	7504
89	18706	11.628254306784	7504
89	18765	11.628761506784	7504
89	18824	11.629268706784	7504
89	18883	11.629775906784	7504
89	18942	11.630283106784	7504
89	19001	11.630790306784	7504
89	19060	11.631297506784	7504
89	19119	11.631804706784	7504
89	19178	11.632311906784	7504
89	19237	11.632819106784	7504
89	19237	11.632819106784	7504
89	19298	11.633326306784	7504
89	19357	11.633833506784	7504
89	19416	11.634340706784	7504
89	19475	11.634847906784	7504
89	19534	11.635355106784	7504
89	19593	11.635862306784	7504
89	19652	11.636369506784	7504
89	19711	11.636876706784	7504
89	19770	11.637383906784	7504
89	19829	11.637891106784	7504
89	19888	11.638398306784	7504
89	19947	11.638905506784	7504
89	20006	11.639412706784	7504
89	20176	11.640934306784	7504
89	20756	11.646513506784	7504
89	20756	11.646513506784	7504
89	20756	11.646513506784	7504
89	20756	11.646513506784	7504
89	20756	11.646513506784	7504
89	20756	11.646513506784	7504
89	20756	11.646513506784	7504
89	20866	11.648270906784	7504
89	20925	11.648778106784	7504
89	20984	11.649285306784	7504
89	21043	11.649792506784	7504
89	21102	11.650299706784	7504
89	21161	11.650806906784	7504
89	21220	11.651314106784	7504
89	21279	11.651821306784	7504
89	21279	11.651821306784	7504
89	21340	11.652328506784	7504
89	21399	11.652835706784	7504
89	21458	11.653342906784	7504
89	21517	11.653850106784	7504
89	21576	11.654357306784	7504
89	21635	11.654864506784	7504
89	21694	11.655371706784	7504
89	21753	11.655878906784	7504
89	21753	11.655878906784	7504
89	21814	11.656386106784	7504
89	21873	11.656893306784	7504
89	21932	11.657400506784	7504
89	21991	11.657907706784	7504
89	22050	11.658414906784	7504
89	22109	11.658922106784	7504
89	22168	11.659429306784	7504
89	22227	11.659936506784	7504
89	22286	11.660443706784	7504
89	22345	11.660950906784	7504
89	22345	11.660950906784	7504
89	22406	11.661458106784	7504
89	22465	11.661965306784	7504
89	22524	11.662472506784	7504
90	212	3.0005143	757505
90	212	3.0005143	757505
90	328	5.0015219	758041
90	331	5.0015219	758041
90	453	5.0032793	758577
90	508	5.0037865	759113
90	524	5.0038649	759113
90	524	5.0038649	759113
90	645	5.0050367	759649
90	711	5.0055439	760185
90	805	5.0060511	760721
90	878	5.0065583	761257
90	896	5.0066367	761257
90	896	5.0066367	761257
90	919	5.0067151	761257
90	919	5.0067151	761257
90	997	5.0074943	761793
90	1050	5.0080015	762329
90	1111	5.0085087	762865
90	1195	5.0090159	763401
90	1288	5.0095231	763937
90	1401	5.0100303	764473
90	1501	5.0105375	765009
90	1590	5.0110447	765545
90	1608	5.0111231	765545
90	1608	5.0111231	765545
90	1633	5.0112015	765545
90	1633	5.0112015	765545
90	1655	5.0112799	765545
90	1655	5.0112799	765545
90	1689	5.0113583	765545
90	1689	5.0113583	765545
90	1733	5.0118655	766081
90	1786	5.0123727	766617
90	1847	5.0128799	767153
90	1908	5.0133871	767689
90	1969	5.0138943	768225
90	2030	5.0144015	768761
90	2091	5.0149087	768761
90	2171	5.0154159	768761
90	2286	5.0159231	768761