file 103124626 1328699942                                       
version 2
run General-0-20120208-12:18:16-15366
attr configname General
attr datetime 20120208-12:18:16
attr experiment General
attr inifile ddos.ini
attr iterationvars ""
attr iterationvars2 $repetition=0
attr measurement ""
attr network Ddos
attr processid 15366
attr repetition 0
attr replication #0
attr resultdir results
attr runnumber 0
attr seedset 0

vector 3  Ddos.r1.eth[0].mac  framesSent  ETV
vector 5  Ddos.r1.eth[0].mac  bytesSent  ETV
vector 18  Ddos.r1.eth[1].mac  framesSent  ETV
vector 20  Ddos.r1.eth[1].mac  bytesSent  ETV
vector 33  Ddos.r1.eth[2].mac  framesSent  ETV
vector 35  Ddos.r1.eth[2].mac  bytesSent  ETV
vector 48  Ddos.r1.eth[3].mac  framesSent  ETV
vector 50  Ddos.r1.eth[3].mac  bytesSent  ETV
vector 63  Ddos.r1.eth[4].mac  framesSent  ETV
vector 65  Ddos.r1.eth[4].mac  bytesSent  ETV
vector 78  Ddos.r1.eth[5].mac  framesSent  ETV
vector 80  Ddos.r1.eth[5].mac  bytesSent  ETV
vector 93  Ddos.r1.eth[6].mac  framesSent  ETV
vector 95  Ddos.r1.eth[6].mac  bytesSent  ETV
vector 108  Ddos.r1.eth[7].mac  framesSent  ETV
vector 110  Ddos.r1.eth[7].mac  bytesSent  ETV
vector 123  Ddos.r1.eth[8].mac  framesSent  ETV
vector 125  Ddos.r1.eth[8].mac  bytesSent  ETV
vector 138  Ddos.r1.eth[9].mac  framesSent  ETV
vector 140  Ddos.r1.eth[9].mac  bytesSent  ETV
vector 153  Ddos.r1.eth[10].mac  framesSent  ETV
vector 155  Ddos.r1.eth[10].mac  bytesSent  ETV
vector 218  Ddos.clients[0].eth[0].mac  framesReceivedOK  ETV
vector 220  Ddos.clients[0].eth[0].mac  bytesReceivedOK  ETV
vector 224  Ddos.clients[0].eth[0].mac  framesPassedToHL  ETV
vector 235  Ddos.clients[1].eth[0].mac  framesReceivedOK  ETV
vector 237  Ddos.clients[1].eth[0].mac  bytesReceivedOK  ETV
vector 241  Ddos.clients[1].eth[0].mac  framesPassedToHL  ETV
vector 252  Ddos.clients[2].eth[0].mac  framesReceivedOK  ETV
vector 254  Ddos.clients[2].eth[0].mac  bytesReceivedOK  ETV
vector 258  Ddos.clients[2].eth[0].mac  framesPassedToHL  ETV
vector 269  Ddos.clients[3].eth[0].mac  framesReceivedOK  ETV
vector 271  Ddos.clients[3].eth[0].mac  bytesReceivedOK  ETV
vector 275  Ddos.clients[3].eth[0].mac  framesPassedToHL  ETV
vector 286  Ddos.clients[4].eth[0].mac  framesReceivedOK  ETV
vector 288  Ddos.clients[4].eth[0].mac  bytesReceivedOK  ETV
vector 292  Ddos.clients[4].eth[0].mac  framesPassedToHL  ETV
vector 303  Ddos.clients[5].eth[0].mac  framesReceivedOK  ETV
vector 305  Ddos.clients[5].eth[0].mac  bytesReceivedOK  ETV
vector 309  Ddos.clients[5].eth[0].mac  framesPassedToHL  ETV
vector 320  Ddos.clients[6].eth[0].mac  framesReceivedOK  ETV
vector 322  Ddos.clients[6].eth[0].mac  bytesReceivedOK  ETV
vector 326  Ddos.clients[6].eth[0].mac  framesPassedToHL  ETV
vector 337  Ddos.clients[7].eth[0].mac  framesReceivedOK  ETV
vector 339  Ddos.clients[7].eth[0].mac  bytesReceivedOK  ETV
vector 343  Ddos.clients[7].eth[0].mac  framesPassedToHL  ETV
vector 354  Ddos.clients[8].eth[0].mac  framesReceivedOK  ETV
vector 356  Ddos.clients[8].eth[0].mac  bytesReceivedOK  ETV
vector 360  Ddos.clients[8].eth[0].mac  framesPassedToHL  ETV
vector 371  Ddos.clients[9].eth[0].mac  framesReceivedOK  ETV
vector 373  Ddos.clients[9].eth[0].mac  bytesReceivedOK  ETV
vector 377  Ddos.clients[9].eth[0].mac  framesPassedToHL  ETV
vector 169  Ddos.r2.eth[0].mac  framesReceivedOK  ETV
vector 171  Ddos.r2.eth[0].mac  bytesReceivedOK  ETV
vector 175  Ddos.r2.eth[0].mac  framesPassedToHL  ETV
vector 168  Ddos.r2.eth[0].mac  framesSent  ETV
vector 170  Ddos.r2.eth[0].mac  bytesSent  ETV
vector 183  Ddos.r2.eth[1].mac  framesSent  ETV
vector 185  Ddos.r2.eth[1].mac  bytesSent  ETV
vector 154  Ddos.r1.eth[10].mac  framesReceivedOK  ETV
vector 156  Ddos.r1.eth[10].mac  bytesReceivedOK  ETV
vector 160  Ddos.r1.eth[10].mac  framesPassedToHL  ETV
vector 201  Ddos.server.eth[0].mac  framesReceivedOK  ETV
vector 203  Ddos.server.eth[0].mac  bytesReceivedOK  ETV
vector 207  Ddos.server.eth[0].mac  framesPassedToHL  ETV
vector 285  Ddos.clients[4].eth[0].mac  framesSent  ETV
vector 287  Ddos.clients[4].eth[0].mac  bytesSent  ETV
vector 64  Ddos.r1.eth[4].mac  framesReceivedOK  ETV
vector 66  Ddos.r1.eth[4].mac  bytesReceivedOK  ETV
vector 70  Ddos.r1.eth[4].mac  framesPassedToHL  ETV
vector 268  Ddos.clients[3].eth[0].mac  framesSent  ETV
vector 270  Ddos.clients[3].eth[0].mac  bytesSent  ETV
vector 49  Ddos.r1.eth[3].mac  framesReceivedOK  ETV
vector 51  Ddos.r1.eth[3].mac  bytesReceivedOK  ETV
vector 55  Ddos.r1.eth[3].mac  framesPassedToHL  ETV
vector 336  Ddos.clients[7].eth[0].mac  framesSent  ETV
vector 338  Ddos.clients[7].eth[0].mac  bytesSent  ETV
vector 109  Ddos.r1.eth[7].mac  framesReceivedOK  ETV
vector 111  Ddos.r1.eth[7].mac  bytesReceivedOK  ETV
vector 115  Ddos.r1.eth[7].mac  framesPassedToHL  ETV
vector 234  Ddos.clients[1].eth[0].mac  framesSent  ETV
vector 236  Ddos.clients[1].eth[0].mac  bytesSent  ETV
vector 19  Ddos.r1.eth[1].mac  framesReceivedOK  ETV
vector 21  Ddos.r1.eth[1].mac  bytesReceivedOK  ETV
vector 25  Ddos.r1.eth[1].mac  framesPassedToHL  ETV
vector 370  Ddos.clients[9].eth[0].mac  framesSent  ETV
vector 372  Ddos.clients[9].eth[0].mac  bytesSent  ETV
vector 139  Ddos.r1.eth[9].mac  framesReceivedOK  ETV
vector 141  Ddos.r1.eth[9].mac  bytesReceivedOK  ETV
vector 145  Ddos.r1.eth[9].mac  framesPassedToHL  ETV
vector 302  Ddos.clients[5].eth[0].mac  framesSent  ETV
vector 304  Ddos.clients[5].eth[0].mac  bytesSent  ETV
vector 79  Ddos.r1.eth[5].mac  framesReceivedOK  ETV
vector 81  Ddos.r1.eth[5].mac  bytesReceivedOK  ETV
vector 85  Ddos.r1.eth[5].mac  framesPassedToHL  ETV
vector 217  Ddos.clients[0].eth[0].mac  framesSent  ETV
vector 219  Ddos.clients[0].eth[0].mac  bytesSent  ETV
vector 4  Ddos.r1.eth[0].mac  framesReceivedOK  ETV
vector 6  Ddos.r1.eth[0].mac  bytesReceivedOK  ETV
vector 10  Ddos.r1.eth[0].mac  framesPassedToHL  ETV
vector 251  Ddos.clients[2].eth[0].mac  framesSent  ETV
vector 253  Ddos.clients[2].eth[0].mac  bytesSent  ETV
vector 34  Ddos.r1.eth[2].mac  framesReceivedOK  ETV
vector 36  Ddos.r1.eth[2].mac  bytesReceivedOK  ETV
vector 40  Ddos.r1.eth[2].mac  framesPassedToHL  ETV
vector 353  Ddos.clients[8].eth[0].mac  framesSent  ETV
vector 355  Ddos.clients[8].eth[0].mac  bytesSent  ETV
vector 124  Ddos.r1.eth[8].mac  framesReceivedOK  ETV
vector 126  Ddos.r1.eth[8].mac  bytesReceivedOK  ETV
vector 130  Ddos.r1.eth[8].mac  framesPassedToHL  ETV
vector 319  Ddos.clients[6].eth[0].mac  framesSent  ETV
vector 321  Ddos.clients[6].eth[0].mac  bytesSent  ETV
vector 94  Ddos.r1.eth[6].mac  framesReceivedOK  ETV
vector 96  Ddos.r1.eth[6].mac  bytesReceivedOK  ETV
vector 100  Ddos.r1.eth[6].mac  framesPassedToHL  ETV
vector 200  Ddos.server.eth[0].mac  framesSent  ETV
vector 202  Ddos.server.eth[0].mac  bytesSent  ETV
vector 184  Ddos.r2.eth[1].mac  framesReceivedOK  ETV
vector 186  Ddos.r2.eth[1].mac  bytesReceivedOK  ETV
vector 190  Ddos.r2.eth[1].mac  framesPassedToHL  ETV
vector 419  Ddos.clients[0].tcp  tcpRcvQueueBytes  ETV
vector 407  Ddos.clients[0].tcp  "advertised window"  ETV
vector 406  Ddos.clients[0].tcp  "receive window"  ETV
vector 409  Ddos.clients[0].tcp  "sent ack"  ETV
vector 442  Ddos.clients[1].tcp  tcpRcvQueueBytes  ETV
vector 430  Ddos.clients[1].tcp  "advertised window"  ETV
vector 429  Ddos.clients[1].tcp  "receive window"  ETV
vector 432  Ddos.clients[1].tcp  "sent ack"  ETV
vector 465  Ddos.clients[2].tcp  tcpRcvQueueBytes  ETV
vector 453  Ddos.clients[2].tcp  "advertised window"  ETV
vector 452  Ddos.clients[2].tcp  "receive window"  ETV
vector 455  Ddos.clients[2].tcp  "sent ack"  ETV
vector 488  Ddos.clients[3].tcp  tcpRcvQueueBytes  ETV
vector 476  Ddos.clients[3].tcp  "advertised window"  ETV
vector 475  Ddos.clients[3].tcp  "receive window"  ETV
vector 478  Ddos.clients[3].tcp  "sent ack"  ETV
vector 511  Ddos.clients[4].tcp  tcpRcvQueueBytes  ETV
vector 499  Ddos.clients[4].tcp  "advertised window"  ETV
vector 498  Ddos.clients[4].tcp  "receive window"  ETV
vector 501  Ddos.clients[4].tcp  "sent ack"  ETV
vector 534  Ddos.clients[5].tcp  tcpRcvQueueBytes  ETV
vector 522  Ddos.clients[5].tcp  "advertised window"  ETV
vector 521  Ddos.clients[5].tcp  "receive window"  ETV
vector 524  Ddos.clients[5].tcp  "sent ack"  ETV
vector 557  Ddos.clients[6].tcp  tcpRcvQueueBytes  ETV
vector 545  Ddos.clients[6].tcp  "advertised window"  ETV
vector 544  Ddos.clients[6].tcp  "receive window"  ETV
vector 547  Ddos.clients[6].tcp  "sent ack"  ETV
vector 580  Ddos.clients[7].tcp  tcpRcvQueueBytes  ETV
vector 568  Ddos.clients[7].tcp  "advertised window"  ETV
vector 567  Ddos.clients[7].tcp  "receive window"  ETV
vector 570  Ddos.clients[7].tcp  "sent ack"  ETV
vector 603  Ddos.clients[8].tcp  tcpRcvQueueBytes  ETV
vector 591  Ddos.clients[8].tcp  "advertised window"  ETV
vector 590  Ddos.clients[8].tcp  "receive window"  ETV
vector 593  Ddos.clients[8].tcp  "sent ack"  ETV
vector 626  Ddos.clients[9].tcp  tcpRcvQueueBytes  ETV
vector 614  Ddos.clients[9].tcp  "advertised window"  ETV
vector 613  Ddos.clients[9].tcp  "receive window"  ETV
vector 616  Ddos.clients[9].tcp  "sent ack"  ETV
vector 150  Ddos.r1.eth[10].queue  "avg queue length"  ETV
vector 151  Ddos.r1.eth[10].queue  "queue length"  ETV
vector 152  Ddos.r1.eth[10].queue  drops  ETV
vector 180  Ddos.r2.eth[1].queue  "avg queue length"  ETV
vector 181  Ddos.r2.eth[1].queue  "queue length"  ETV
vector 387  Ddos.server.tcp  "rcvd seq"  ETV
vector 388  Ddos.server.tcp  "rcvd ack"  ETV
vector 384  Ddos.server.tcp  "advertised window"  ETV
vector 382  Ddos.server.tcp  "send window"  ETV
vector 396  Ddos.server.tcp  tcpRcvQueueBytes  ETV
vector 383  Ddos.server.tcp  "receive window"  ETV
vector 386  Ddos.server.tcp  "sent ack"  ETV
vector 640  Ddos.server.tcp  "rcvd seq"  ETV
vector 641  Ddos.server.tcp  "rcvd ack"  ETV
vector 637  Ddos.server.tcp  "advertised window"  ETV
vector 635  Ddos.server.tcp  "send window"  ETV
vector 649  Ddos.server.tcp  tcpRcvQueueBytes  ETV
vector 636  Ddos.server.tcp  "receive window"  ETV
vector 639  Ddos.server.tcp  "sent ack"  ETV
vector 663  Ddos.server.tcp  "rcvd seq"  ETV
vector 664  Ddos.server.tcp  "rcvd ack"  ETV
vector 660  Ddos.server.tcp  "advertised window"  ETV
vector 658  Ddos.server.tcp  "send window"  ETV
vector 672  Ddos.server.tcp  tcpRcvQueueBytes  ETV
vector 659  Ddos.server.tcp  "receive window"  ETV
vector 662  Ddos.server.tcp  "sent ack"  ETV
vector 410  Ddos.clients[0].tcp  "rcvd seq"  ETV
vector 411  Ddos.clients[0].tcp  "rcvd ack"  ETV
vector 405  Ddos.clients[0].tcp  "send window"  ETV
vector 433  Ddos.clients[1].tcp  "rcvd seq"  ETV
vector 434  Ddos.clients[1].tcp  "rcvd ack"  ETV
vector 428  Ddos.clients[1].tcp  "send window"  ETV
vector 456  Ddos.clients[2].tcp  "rcvd seq"  ETV
vector 457  Ddos.clients[2].tcp  "rcvd ack"  ETV
vector 451  Ddos.clients[2].tcp  "send window"  ETV
vector 389  Ddos.server.tcp  "unacked bytes"  ETV
vector 642  Ddos.server.tcp  "unacked bytes"  ETV
vector 665  Ddos.server.tcp  "unacked bytes"  ETV
vector 408  Ddos.clients[0].tcp  "sent seq"  ETV
vector 412  Ddos.clients[0].tcp  "unacked bytes"  ETV
vector 431  Ddos.clients[1].tcp  "sent seq"  ETV
vector 435  Ddos.clients[1].tcp  "unacked bytes"  ETV
vector 454  Ddos.clients[2].tcp  "sent seq"  ETV
vector 458  Ddos.clients[2].tcp  "unacked bytes"  ETV
vector 390  Ddos.server.tcp  "rcvd dupAcks"  ETV
vector 385  Ddos.server.tcp  "sent seq"  ETV
vector 197  Ddos.server.eth[0].queue  "avg queue length"  ETV
vector 198  Ddos.server.eth[0].queue  "queue length"  ETV
vector 423  Ddos.clients[0].tcp  "measured RTT"  ETV
vector 424  Ddos.clients[0].tcp  "smoothed RTT"  ETV
vector 425  Ddos.clients[0].tcp  RTTVAR  ETV
vector 426  Ddos.clients[0].tcp  RTO  ETV
vector 421  Ddos.clients[0].tcp  cwnd  ETV
vector 413  Ddos.clients[0].tcp  "rcvd dupAcks"  ETV
vector 214  Ddos.clients[0].eth[0].queue  "avg queue length"  ETV
vector 215  Ddos.clients[0].eth[0].queue  "queue length"  ETV
vector 643  Ddos.server.tcp  "rcvd dupAcks"  ETV
vector 638  Ddos.server.tcp  "sent seq"  ETV
vector 165  Ddos.r2.eth[0].queue  "avg queue length"  ETV
vector 166  Ddos.r2.eth[0].queue  "queue length"  ETV
vector 666  Ddos.server.tcp  "rcvd dupAcks"  ETV
vector 661  Ddos.server.tcp  "sent seq"  ETV
vector 446  Ddos.clients[1].tcp  "measured RTT"  ETV
vector 447  Ddos.clients[1].tcp  "smoothed RTT"  ETV
vector 448  Ddos.clients[1].tcp  RTTVAR  ETV
vector 449  Ddos.clients[1].tcp  RTO  ETV
vector 444  Ddos.clients[1].tcp  cwnd  ETV
vector 436  Ddos.clients[1].tcp  "rcvd dupAcks"  ETV
vector 231  Ddos.clients[1].eth[0].queue  "avg queue length"  ETV
vector 232  Ddos.clients[1].eth[0].queue  "queue length"  ETV
vector 469  Ddos.clients[2].tcp  "measured RTT"  ETV
vector 470  Ddos.clients[2].tcp  "smoothed RTT"  ETV
vector 471  Ddos.clients[2].tcp  RTTVAR  ETV
vector 472  Ddos.clients[2].tcp  RTO  ETV
vector 467  Ddos.clients[2].tcp  cwnd  ETV
vector 459  Ddos.clients[2].tcp  "rcvd dupAcks"  ETV
vector 248  Ddos.clients[2].eth[0].queue  "avg queue length"  ETV
vector 249  Ddos.clients[2].eth[0].queue  "queue length"  ETV
vector 400  Ddos.server.tcp  "measured RTT"  ETV
vector 401  Ddos.server.tcp  "smoothed RTT"  ETV
vector 402  Ddos.server.tcp  RTTVAR  ETV
vector 403  Ddos.server.tcp  RTO  ETV
vector 398  Ddos.server.tcp  cwnd  ETV
vector 216  Ddos.clients[0].eth[0].queue  drops  ETV
vector 653  Ddos.server.tcp  "measured RTT"  ETV
vector 654  Ddos.server.tcp  "smoothed RTT"  ETV
vector 655  Ddos.server.tcp  RTTVAR  ETV
vector 656  Ddos.server.tcp  RTO  ETV
vector 651  Ddos.server.tcp  cwnd  ETV
vector 233  Ddos.clients[1].eth[0].queue  drops  ETV
vector 394  Ddos.server.tcp  "rcvd oooseg"  ETV
vector 647  Ddos.server.tcp  "rcvd oooseg"  ETV
vector 676  Ddos.server.tcp  "measured RTT"  ETV
vector 677  Ddos.server.tcp  "smoothed RTT"  ETV
vector 678  Ddos.server.tcp  RTTVAR  ETV
vector 679  Ddos.server.tcp  RTO  ETV
vector 674  Ddos.server.tcp  cwnd  ETV
vector 670  Ddos.server.tcp  "rcvd oooseg"  ETV
vector 167  Ddos.r2.eth[0].queue  drops  ETV
vector 30  Ddos.r1.eth[2].queue  "avg queue length"  ETV
vector 31  Ddos.r1.eth[2].queue  "queue length"  ETV
vector 686  Ddos.server.tcp  "rcvd seq"  ETV
vector 687  Ddos.server.tcp  "rcvd ack"  ETV
vector 683  Ddos.server.tcp  "advertised window"  ETV
vector 681  Ddos.server.tcp  "send window"  ETV
vector 695  Ddos.server.tcp  tcpRcvQueueBytes  ETV
vector 682  Ddos.server.tcp  "receive window"  ETV
vector 685  Ddos.server.tcp  "sent ack"  ETV
vector 709  Ddos.server.tcp  "rcvd seq"  ETV
vector 710  Ddos.server.tcp  "rcvd ack"  ETV
vector 706  Ddos.server.tcp  "advertised window"  ETV
vector 704  Ddos.server.tcp  "send window"  ETV
vector 718  Ddos.server.tcp  tcpRcvQueueBytes  ETV
vector 705  Ddos.server.tcp  "receive window"  ETV
vector 708  Ddos.server.tcp  "sent ack"  ETV
vector 732  Ddos.server.tcp  "rcvd seq"  ETV
vector 733  Ddos.server.tcp  "rcvd ack"  ETV
vector 729  Ddos.server.tcp  "advertised window"  ETV
vector 727  Ddos.server.tcp  "send window"  ETV
vector 741  Ddos.server.tcp  tcpRcvQueueBytes  ETV
vector 728  Ddos.server.tcp  "receive window"  ETV
vector 731  Ddos.server.tcp  "sent ack"  ETV
vector 479  Ddos.clients[3].tcp  "rcvd seq"  ETV
vector 480  Ddos.clients[3].tcp  "rcvd ack"  ETV
vector 474  Ddos.clients[3].tcp  "send window"  ETV
vector 477  Ddos.clients[3].tcp  "sent seq"  ETV
vector 481  Ddos.clients[3].tcp  "unacked bytes"  ETV
vector 265  Ddos.clients[3].eth[0].queue  "avg queue length"  ETV
vector 266  Ddos.clients[3].eth[0].queue  "queue length"  ETV
vector 502  Ddos.clients[4].tcp  "rcvd seq"  ETV
vector 503  Ddos.clients[4].tcp  "rcvd ack"  ETV
vector 497  Ddos.clients[4].tcp  "send window"  ETV
vector 500  Ddos.clients[4].tcp  "sent seq"  ETV
vector 504  Ddos.clients[4].tcp  "unacked bytes"  ETV
vector 282  Ddos.clients[4].eth[0].queue  "avg queue length"  ETV
vector 283  Ddos.clients[4].eth[0].queue  "queue length"  ETV
vector 525  Ddos.clients[5].tcp  "rcvd seq"  ETV
vector 526  Ddos.clients[5].tcp  "rcvd ack"  ETV
vector 520  Ddos.clients[5].tcp  "send window"  ETV
vector 523  Ddos.clients[5].tcp  "sent seq"  ETV
vector 527  Ddos.clients[5].tcp  "unacked bytes"  ETV
vector 299  Ddos.clients[5].eth[0].queue  "avg queue length"  ETV
vector 300  Ddos.clients[5].eth[0].queue  "queue length"  ETV
vector 688  Ddos.server.tcp  "unacked bytes"  ETV
vector 711  Ddos.server.tcp  "unacked bytes"  ETV
vector 734  Ddos.server.tcp  "unacked bytes"  ETV
vector 689  Ddos.server.tcp  "rcvd dupAcks"  ETV
vector 684  Ddos.server.tcp  "sent seq"  ETV
vector 492  Ddos.clients[3].tcp  "measured RTT"  ETV
vector 493  Ddos.clients[3].tcp  "smoothed RTT"  ETV
vector 494  Ddos.clients[3].tcp  RTTVAR  ETV
vector 495  Ddos.clients[3].tcp  RTO  ETV
vector 490  Ddos.clients[3].tcp  cwnd  ETV
vector 482  Ddos.clients[3].tcp  "rcvd dupAcks"  ETV
vector 712  Ddos.server.tcp  "rcvd dupAcks"  ETV
vector 707  Ddos.server.tcp  "sent seq"  ETV
vector 735  Ddos.server.tcp  "rcvd dupAcks"  ETV
vector 730  Ddos.server.tcp  "sent seq"  ETV
vector 515  Ddos.clients[4].tcp  "measured RTT"  ETV
vector 516  Ddos.clients[4].tcp  "smoothed RTT"  ETV
vector 517  Ddos.clients[4].tcp  RTTVAR  ETV
vector 518  Ddos.clients[4].tcp  RTO  ETV
vector 513  Ddos.clients[4].tcp  cwnd  ETV
vector 505  Ddos.clients[4].tcp  "rcvd dupAcks"  ETV
vector 538  Ddos.clients[5].tcp  "measured RTT"  ETV
vector 539  Ddos.clients[5].tcp  "smoothed RTT"  ETV
vector 540  Ddos.clients[5].tcp  RTTVAR  ETV
vector 541  Ddos.clients[5].tcp  RTO  ETV
vector 536  Ddos.clients[5].tcp  cwnd  ETV
vector 528  Ddos.clients[5].tcp  "rcvd dupAcks"  ETV
vector 699  Ddos.server.tcp  "measured RTT"  ETV
vector 700  Ddos.server.tcp  "smoothed RTT"  ETV
vector 701  Ddos.server.tcp  RTTVAR  ETV
vector 702  Ddos.server.tcp  RTO  ETV
vector 697  Ddos.server.tcp  cwnd  ETV
vector 267  Ddos.clients[3].eth[0].queue  drops  ETV
vector 722  Ddos.server.tcp  "measured RTT"  ETV
vector 723  Ddos.server.tcp  "smoothed RTT"  ETV
vector 724  Ddos.server.tcp  RTTVAR  ETV
vector 725  Ddos.server.tcp  RTO  ETV
vector 720  Ddos.server.tcp  cwnd  ETV
vector 284  Ddos.clients[4].eth[0].queue  drops  ETV
vector 693  Ddos.server.tcp  "rcvd oooseg"  ETV
vector 716  Ddos.server.tcp  "rcvd oooseg"  ETV
vector 745  Ddos.server.tcp  "measured RTT"  ETV
vector 746  Ddos.server.tcp  "smoothed RTT"  ETV
vector 747  Ddos.server.tcp  RTTVAR  ETV
vector 748  Ddos.server.tcp  RTO  ETV
vector 743  Ddos.server.tcp  cwnd  ETV
vector 739  Ddos.server.tcp  "rcvd oooseg"  ETV
vector 75  Ddos.r1.eth[5].queue  "avg queue length"  ETV
vector 76  Ddos.r1.eth[5].queue  "queue length"  ETV
vector 427  Ddos.clients[0].tcp  numRTOs  ETV
vector 422  Ddos.clients[0].tcp  ssthresh  ETV
vector 450  Ddos.clients[1].tcp  numRTOs  ETV
vector 445  Ddos.clients[1].tcp  ssthresh  ETV
vector 473  Ddos.clients[2].tcp  numRTOs  ETV
vector 468  Ddos.clients[2].tcp  ssthresh  ETV
vector 199  Ddos.server.eth[0].queue  drops  ETV
vector 0  Ddos.r1.eth[0].queue  "avg queue length"  ETV
vector 1  Ddos.r1.eth[0].queue  "queue length"  ETV
vector 15  Ddos.r1.eth[1].queue  "avg queue length"  ETV
vector 16  Ddos.r1.eth[1].queue  "queue length"  ETV
vector 417  Ddos.clients[0].tcp  "rcvd oooseg"  ETV
vector 496  Ddos.clients[3].tcp  numRTOs  ETV
vector 491  Ddos.clients[3].tcp  ssthresh  ETV
vector 519  Ddos.clients[4].tcp  numRTOs  ETV
vector 514  Ddos.clients[4].tcp  ssthresh  ETV
vector 542  Ddos.clients[5].tcp  numRTOs  ETV
vector 537  Ddos.clients[5].tcp  ssthresh  ETV
vector 45  Ddos.r1.eth[3].queue  "avg queue length"  ETV
vector 46  Ddos.r1.eth[3].queue  "queue length"  ETV
vector 60  Ddos.r1.eth[4].queue  "avg queue length"  ETV
vector 61  Ddos.r1.eth[4].queue  "queue length"  ETV
vector 486  Ddos.clients[3].tcp  "rcvd oooseg"  ETV
vector 404  Ddos.server.tcp  numRTOs  ETV
vector 399  Ddos.server.tcp  ssthresh  ETV
vector 182  Ddos.r2.eth[1].queue  drops  ETV
vector 440  Ddos.clients[1].tcp  "rcvd oooseg"  ETV
vector 680  Ddos.server.tcp  numRTOs  ETV
vector 675  Ddos.server.tcp  ssthresh  ETV
vector 250  Ddos.clients[2].eth[0].queue  drops  ETV
vector 463  Ddos.clients[2].tcp  "rcvd oooseg"  ETV
vector 703  Ddos.server.tcp  numRTOs  ETV
vector 698  Ddos.server.tcp  ssthresh  ETV
vector 509  Ddos.clients[4].tcp  "rcvd oooseg"  ETV
vector 657  Ddos.server.tcp  numRTOs  ETV
vector 652  Ddos.server.tcp  ssthresh  ETV
vector 749  Ddos.server.tcp  numRTOs  ETV
vector 744  Ddos.server.tcp  ssthresh  ETV
vector 47  Ddos.r1.eth[3].queue  drops  ETV
vector 726  Ddos.server.tcp  numRTOs  ETV
vector 721  Ddos.server.tcp  ssthresh  ETV
vector 755  Ddos.server.tcp  "rcvd seq"  ETV
vector 756  Ddos.server.tcp  "rcvd ack"  ETV
vector 752  Ddos.server.tcp  "advertised window"  ETV
vector 750  Ddos.server.tcp  "send window"  ETV
vector 764  Ddos.server.tcp  tcpRcvQueueBytes  ETV
vector 751  Ddos.server.tcp  "receive window"  ETV
vector 754  Ddos.server.tcp  "sent ack"  ETV
vector 778  Ddos.server.tcp  "rcvd seq"  ETV
vector 779  Ddos.server.tcp  "rcvd ack"  ETV
vector 775  Ddos.server.tcp  "advertised window"  ETV
vector 773  Ddos.server.tcp  "send window"  ETV
vector 787  Ddos.server.tcp  tcpRcvQueueBytes  ETV
vector 774  Ddos.server.tcp  "receive window"  ETV
vector 777  Ddos.server.tcp  "sent ack"  ETV
vector 548  Ddos.clients[6].tcp  "rcvd seq"  ETV
vector 549  Ddos.clients[6].tcp  "rcvd ack"  ETV
vector 543  Ddos.clients[6].tcp  "send window"  ETV
vector 546  Ddos.clients[6].tcp  "sent seq"  ETV
vector 550  Ddos.clients[6].tcp  "unacked bytes"  ETV
vector 316  Ddos.clients[6].eth[0].queue  "avg queue length"  ETV
vector 317  Ddos.clients[6].eth[0].queue  "queue length"  ETV
vector 571  Ddos.clients[7].tcp  "rcvd seq"  ETV
vector 572  Ddos.clients[7].tcp  "rcvd ack"  ETV
vector 566  Ddos.clients[7].tcp  "send window"  ETV
vector 569  Ddos.clients[7].tcp  "sent seq"  ETV
vector 573  Ddos.clients[7].tcp  "unacked bytes"  ETV
vector 333  Ddos.clients[7].eth[0].queue  "avg queue length"  ETV
vector 334  Ddos.clients[7].eth[0].queue  "queue length"  ETV
vector 757  Ddos.server.tcp  "unacked bytes"  ETV
vector 301  Ddos.clients[5].eth[0].queue  drops  ETV
vector 532  Ddos.clients[5].tcp  "rcvd oooseg"  ETV
vector 17  Ddos.r1.eth[1].queue  drops  ETV
vector 565  Ddos.clients[6].tcp  numRTOs  ETV
vector 560  Ddos.clients[6].tcp  ssthresh  ETV
vector 559  Ddos.clients[6].tcp  cwnd  ETV
vector 588  Ddos.clients[7].tcp  numRTOs  ETV
vector 583  Ddos.clients[7].tcp  ssthresh  ETV
vector 582  Ddos.clients[7].tcp  cwnd  ETV
vector 780  Ddos.server.tcp  "unacked bytes"  ETV
vector 758  Ddos.server.tcp  "rcvd dupAcks"  ETV
vector 753  Ddos.server.tcp  "sent seq"  ETV
vector 551  Ddos.clients[6].tcp  "rcvd dupAcks"  ETV
vector 781  Ddos.server.tcp  "rcvd dupAcks"  ETV
vector 776  Ddos.server.tcp  "sent seq"  ETV
vector 574  Ddos.clients[7].tcp  "rcvd dupAcks"  ETV
vector 561  Ddos.clients[6].tcp  "measured RTT"  ETV
vector 562  Ddos.clients[6].tcp  "smoothed RTT"  ETV
vector 563  Ddos.clients[6].tcp  RTTVAR  ETV
vector 564  Ddos.clients[6].tcp  RTO  ETV
vector 768  Ddos.server.tcp  "measured RTT"  ETV
vector 769  Ddos.server.tcp  "smoothed RTT"  ETV
vector 770  Ddos.server.tcp  RTTVAR  ETV
vector 771  Ddos.server.tcp  RTO  ETV
vector 766  Ddos.server.tcp  cwnd  ETV
vector 791  Ddos.server.tcp  "measured RTT"  ETV
vector 792  Ddos.server.tcp  "smoothed RTT"  ETV
vector 793  Ddos.server.tcp  RTTVAR  ETV
vector 794  Ddos.server.tcp  RTO  ETV
vector 789  Ddos.server.tcp  cwnd  ETV
vector 584  Ddos.clients[7].tcp  "measured RTT"  ETV
vector 585  Ddos.clients[7].tcp  "smoothed RTT"  ETV
vector 586  Ddos.clients[7].tcp  RTTVAR  ETV
vector 587  Ddos.clients[7].tcp  RTO  ETV
vector 90  Ddos.r1.eth[6].queue  "avg queue length"  ETV
vector 91  Ddos.r1.eth[6].queue  "queue length"  ETV
vector 555  Ddos.clients[6].tcp  "rcvd oooseg"  ETV
vector 785  Ddos.server.tcp  "rcvd oooseg"  ETV
vector 318  Ddos.clients[6].eth[0].queue  drops  ETV
vector 762  Ddos.server.tcp  "rcvd oooseg"  ETV
0	23884 376 5007 497797 7.309593740625 13.930372907668 11 0 0.0039959741077036 0.019937896996937 6.3505503754439e-05
1	24260 540 5007 497872 7.309593740625 13.930801707668 22 0 2 15 19
3	24800 94927 127 746596 0.142147326819 16.648564907668 3239 1 3239 5247180 11332159740
4	119727 96634 267 746609 0.673757501574 16.648643507668 3297 1 3297 5436753 11951795345
5	216361 102187 127 746596 0.142147326819 16.648564907668 3239 64 1120374 1363959516 8.956261480141e+14
6	318548 105491 267 746609 0.673757501574 16.648643507668 3297 64 1152770 2359767988 2.1430743604559e+15
10	424039 99931 267 746609 0.673757501574 16.648643507668 3297 1 3297 5436753 11951795345
15	523970 250 5903 581930 7.315058340625 14.679258820778 9 0 0.005996 0.007996 3.9952016e-05
16	524220 422 5903 581947 7.315058340625 14.679454707668 16 0 2 10 12
17	524642 28 581930 581930 14.679258820778 14.679258820778 1 1 1 1 1
18	524670 121449 128 754119 0.142147326819 16.703889020778 3992 1 3992 7970028 21213557860
19	646119 123618 234 754148 0.529997514025 16.703967620778 4066 1 4066 8268211 22415120021
20	769737 129423 128 754119 0.142147326819 16.703889020778 3992 64 858044 1906394902 1.3074985969604e+15
21	899160 134247 234 754148 0.529997514025 16.703967620778 4066 64 1945464 3769261956 4.5672745952573e+15
25	1033407 123618 234 754148 0.529997514025 16.703967620778 4066 1 4066 8268211 22415120021
30	1157025 1062 2456 690161 5.0097579 15.700061820778 25 0 0.0098696881222029 0.14426572170183 0.0010181583156665
31	1158087 1343 2456 690199 5.0097579 15.700490620778 50 0 2 35 45
33	1159430 37013 129 755100 0.142147326819 16.712591020778 1268 1 1268 804546 680377734
34	1196443 38714 278 754870 0.741127668996 16.710562420778 1327 1 1327 881128 779798280
35	1235157 39910 129 755100 0.142147326819 16.712591020778 1268 64 433316 200477918 59026202714852
36	1275067 42274 278 754870 0.741127668996 16.710562420778 1327 64 477046 397962728 1.4266499520272e+14
40	1317341 38714 278 754870 0.741127668996 16.710562420778 1327 1 1327 881128 779798280
45	1356055 1544 7052 696220 8.310334915625 15.973106107668 37 0 0.021749047903519 0.3758775825633 0.0053618127866896
46	1357599 1918 7052 696296 8.310334915625 15.973456507668 70 0 2 49 63
47	1359517 56 218687 613834 10.917796156591 14.958630820778 2 1 1 2 2
48	1359573 8528 130 696906 0.142147326819 15.977749907668 297 1 297 44253 8776845
49	1368101 8851 212 696931 0.481198203959 15.977828507668 309 1 309 47895 9882335
50	1376952 9199 130 696906 0.142147326819 15.977749907668 297 64 105658 13301032 921801953216
51	1386151 9574 212 696931 0.481198203959 15.977828507668 309 64 108742 18305262 1379217121396
55	1395725 8851 212 696931 0.481198203959 15.977828507668 309 1 309 47895 9882335
60	1404576 265 7948 122487 8.315799515625 10.088775707668 7 0 0.0059879737297455 0.017979923160441 7.5791489667801e-05
61	1404841 386 7948 122551 8.315799515625 10.089126107668 14 0 2 13 19
63	1405227 100255 131 754230 0.142147326819 16.704396220778 3274 1 3274 5361175 11703445025
64	1505482 101963 201 754243 0.411341178812 16.704474820778 3330 1 3330 5546115 12314224005
65	1607445 106687 131 754230 0.142147326819 16.704396220778 3274 64 722176 976577920 5.0574756215293e+14
66	1714132 111194 201 754243 0.411341178812 16.704474820778 3330 64 1573964 2831251790 3.0183889220635e+15
70	1825326 101963 201 754243 0.411341178812 16.704474820778 3330 1 3330 5546115 12314224005
75	1927289 224 4312 489343 6.0104611 13.623620150744 6 0 0.0059578677523488 0.017859261151076 7.4831519689476e-05
76	1927513 304 4312 489359 6.0104611 13.623891550744 12 0 2 12 18
78	1927817 13668 132 773167 0.142147326819 16.872875020778 463 1 463 107416 33191544
79	1941485 13992 256 773178 0.594551902473 16.873146620778 475 1 475 113050 35836850
80	1955477 14661 132 773167 0.142147326819 16.872875020778 463 64 51070 14710994 541775657756
81	1970138 15300 256 773178 0.594551902473 16.873146620778 475 64 272842 61201702 11075058994436
85	1985438 13992 256 773178 0.594551902473 16.873146620778 475 1 475 113050 35836850
90	1999430 112 615717 616132 15.011328107668 15.013670507668 4 0 0 0 0
91	1999542 224 615717 616189 15.011328107668 15.014099307668 8 0 1 4 4
93	1999766 12480 133 699611 0.142147326819 16.230555107668 420 1 420 88410 24784270
94	2012246 12615 300 699447 0.77064860051 16.229033707668 425 1 425 90525 25678925
95	2024861 13348 133 699611 0.142147326819 16.230555107668 420 64 36996 8616208 216373020800
96	2038209 13785 300 699447 0.77064860051 16.229033707668 425 64 252862 52240996 8809628938896
100	2051994 13040 300 699447 0.77064860051 16.229033707668 425 1 425 90525 25678925
108	2065034 545 134 616200 0.142147326819 15.014099907668 19 1 19 190 2470
109	2065579 673 223 615959 0.489872218272 15.012499507668 24 1 24 300 4900
110	2066252 584 134 616200 0.142147326819 15.014099907668 19 64 4114 34324 102953728
111	2066836 721 223 615959 0.489872218272 15.012499507668 24 64 7188 70698 347883196
115	2067557 673 223 615959 0.489872218272 15.012499507668 24 1 24 300 4900
123	2068230 70 135 6382 0.142147326819 8.0001345 3 1 3 6 14
124	2068300 136 289 306561 0.767324733477 12.0000817 6 1 6 21 91
125	2068436 75 135 6382 0.142147326819 8.0001345 3 64 192 384 57344
126	2068511 147 289 306561 0.767324733477 12.0000817 6 64 438 1488 468424
130	2068658 136 289 306561 0.767324733477 12.0000817 6 1 6 21 91
138	2068794 70 136 6383 0.142147326819 8.0001345 3 1 3 6 14
139	2068864 135 245 306562 0.53346013131 12.0000817 6 1 6 21 91
140	2068999 75 136 6383 0.142147326819 8.0001345 3 64 192 384 57344
141	2069074 146 245 306562 0.53346013131 12.0000817 6 64 438 1488 468424
145	2069220 135 245 306562 0.53346013131 12.0000817 6 1 6 21 91
150	2069355 123889 744 758618 3.0002163 16.742516020778 2914 0 1.0905703009853 2409.1350382316 2233.496856816
151	2193244 148937 744 758619 3.0002163 16.742787420778 5298 0 2 5031 7413
152	2342181 7277 746 754813 3.0002163 16.710055220778 265 1 1 265 265
153	2349458 412747 137 773177 0.142147326819 16.873146620778 12964 1 12964 84039130 726350200590